ITEM: TIMESTEP
0
ITEM: NUMBER OF ATOMS
10000
ITEM: BOX BOUNDS pp pp pp
0.000000 98.804504
0.000000 98.804504
-0.098805 0.098805
ITEM: ATOMS id type xs ys zs
605 2 0.0104583 0.0127749 0.5
8 1 0.0105114 0.00181682 0.5
5248 2 0.000139638 0.0058023 0.5
5099 1 0.016977 0.00388543 0.5
4909 1 0.0233999 0.00180133 0.5
4807 2 0.023317 0.0129963 0.5
9999 2 0.0338122 0.00541506 0.5
4905 2 0.0463845 0.00535314 0.5
5648 1 0.0567019 0.00928936 0.5
269 1 0.0570179 0.00238303 0.5
212 2 0.0674516 0.0059798 0.5
4805 1 0.0781409 0.00262304 0.5
56 1 0.0780411 0.00941256 0.5
107 2 0.0887437 0.0061715 0.5
4764 2 0.101548 0.00654598 0.5
203 1 0.112003 0.0105219 0.5
4604 1 0.112448 0.00373569 0.5
4713 2 0.122837 0.00837157 0.5
465 2 0.135768 0.009754 0.5
101 1 0.147052 0.00790937 0.5
407 1 0.152391 0.0126606 0.5
16 1 0.150437 0.00210897 0.5
4823 2 0.160692 0.00526954 0.5
116 1 0.170748 0.00987824 0.5
4874 2 0.181561 0.00759162 0.5
76 2 0.19426 0.00868689 0.5
81 1 0.205218 0.00557698 0.5
275 1 0.211617 0.00821602 0.5
4877 1 0.218295 0.00648054 0.5
422 1 0.222678 0.00122327 0.5
4976 2 0.228854 0.0104836 0.5
69 1 0.235687 0.00167256 0.5
121 2 0.24184 0.0110267 0.5
473 2 0.252636 0.00402032 0.5
429 2 0.263026 0.0114541 0.5
4733 1 0.269893 0.00251542 0.5
4984 1 0.263425 0.000440494 0.5
4531 1 0.283137 0.00264309 0.5
26 2 0.275878 0.0117793 0.5
4535 1 0.276539 0.000673438 0.5
530 1 0.286608 0.00840103 0.5
4934 2 0.296429 0.0135436 0.5
33 2 0.294636 0.000572311 0.5
4291 1 0.304705 0.00660955 0.5
4731 1 0.307459 0.0130912 0.5
278 1 0.305991 4.64136e-05 0.5
130 2 0.315676 0.00576475 0.5
288 2 0.327402 0.00975823 0.5
4787 1 0.336774 0.00365812 0.5
4981 2 0.347641 0.00610997 0.5
142 1 0.358088 0.0104412 0.5
4875 1 0.358719 0.00390223 0.5
79 2 0.36936 0.0083407 0.5
4791 2 0.3824 0.00925834 0.5
346 2 0.393925 0.00351601 0.5
4946 1 0.399234 0.0133937 0.5
144 2 0.407777 0.00512413 0.5
545 1 0.418986 0.00195701 0.5
4940 2 0.420969 0.0130115 0.5
4895 2 0.430044 0.0042616 0.5
246 2 0.443079 0.00458214 0.5
5451 1 0.45214 0.0111982 0.5
197 2 0.455627 0.000642813 0.5
5004 1 0.459071 0.0110173 0.5
5154 2 0.467942 0.00379975 0.5
5751 1 0.479153 0.00329722 0.5
5352 2 0.4759 0.0139808 0.5
646 2 0.488241 0.00969288 0.5
608 1 0.0100629 0.0236733 0.5
12 1 0.00542007 0.0284782 0.5
9989 1 0.0166397 0.0218614 0.5
9850 2 0.0270973 0.0255405 0.5
167 1 0.0401802 0.0145909 0.5
4765 1 0.0337385 0.0165958 0.5
201 2 0.0400466 0.0257602 0.5
263 1 0.0536857 0.0157068 0.5
5645 1 0.0467228 0.0164834 0.5
5196 1 0.0505541 0.02201 0.5
6 1 0.0605894 0.0148085 0.5
560 2 0.0608075 0.02581 0.5
354 2 0.0712733 0.0183233 0.5
251 2 0.0843321 0.0185355 0.5
408 1 0.0778025 0.0275095 0.5
604 1 0.0949005 0.0154734 0.5
559 2 0.0948479 0.0266803 0.5
4868 1 0.107722 0.0157353 0.5
756 1 0.101267 0.0176734 0.5
119 2 0.107622 0.0267893 0.5
159 2 0.117865 0.0200834 0.5
277 1 0.127561 0.0253202 0.5
413 1 0.128637 0.0183218 0.5
315 2 0.138655 0.022933 0.5
4973 1 0.145839 0.0145447 0.5
369 2 0.151686 0.0239638 0.5
265 2 0.162859 0.0177916 0.5
68 2 0.172828 0.0268947 0.5
4817 1 0.17407 0.0158709 0.5
4873 1 0.180473 0.0187457 0.5
324 1 0.187262 0.0174221 0.5
325 1 0.193636 0.0202305 0.5
4726 1 0.197591 0.0261906 0.5
4966 2 0.1862 0.0286054 0.5
4878 2 0.204099 0.0164946 0.5
120 2 0.208991 0.0276792 0.5
14 2 0.217782 0.0175996 0.5
169 1 0.228762 0.0213501 0.5
270 1 0.235283 0.0198719 0.5
479 1 0.241672 0.0222217 0.5
24 2 0.252227 0.018627 0.5
634 1 0.245602 0.0277939 0.5
84 1 0.262583 0.0226244 0.5
319 1 0.269037 0.0207387 0.5
474 1 0.275324 0.0230073 0.5
228 2 0.285728 0.0194538 0.5
4816 1 0.279313 0.0284719 0.5
1019 2 0.296616 0.026448 0.5
876 1 0.305856 0.01973 0.5
232 2 0.31734 0.0185395 0.5
4736 1 0.328878 0.0205931 0.5
4977 2 0.338722 0.015295 0.5
4637 1 0.333828 0.0254522 0.5
30 2 0.350892 0.0187902 0.5
4935 2 0.363203 0.0200476 0.5
4982 2 0.375729 0.0199207 0.5
4839 1 0.385121 0.0256823 0.5
4937 1 0.392403 0.0146295 0.5
4437 1 0.387259 0.0192426 0.5
92 2 0.397085 0.0248589 0.5
437 2 0.409403 0.0178195 0.5
50 1 0.419638 0.0243664 0.5
494 1 0.426495 0.0225348 0.5
5303 2 0.435326 0.015762 0.5
838 1 0.446591 0.0152592 0.5
5402 1 0.444727 0.0218395 0.5
286 2 0.455932 0.0216717 0.5
5301 1 0.464779 0.0145685 0.5
48 2 0.468481 0.0249864 0.5
4942 1 0.479574 0.0245163 0.5
5266 1 0.485032 0.0204129 0.5
4896 1 0.491871 0.0202117 0.5
349 1 0.497501 0.0239587 0.5
351 2 0.00541089 0.0392079 0.5
156 2 0.0162931 0.0328575 0.5
812 1 0.0267905 0.0367114 0.5
4813 1 0.0226191 0.0421366 0.5
4308 1 0.0333484 0.0347747 0.5
4 1 0.0397638 0.0369848 0.5
453 2 0.0503006 0.03333 0.5
611 1 0.0567013 0.0424514 0.5
174 1 0.0608348 0.0370438 0.5
4753 1 0.0672928 0.0349501 0.5
59 1 0.0713528 0.0295291 0.5
151 1 0.0842351 0.0297026 0.5
216 2 0.0778459 0.0387492 0.5
562 2 0.0908473 0.0387762 0.5
104 1 0.101511 0.035831 0.5
506 1 0.108186 0.0377258 0.5
515 2 0.119084 0.0336984 0.5
60 2 0.133188 0.0349094 0.5
4929 1 0.144305 0.0324427 0.5
22 1 0.150674 0.035067 0.5
225 1 0.161843 0.0288411 0.5
4772 1 0.15727 0.033832 0.5
4862 2 0.167244 0.0386495 0.5
327 1 0.178195 0.0366326 0.5
20 2 0.188169 0.0413694 0.5
331 2 0.200714 0.0375195 0.5
317 2 0.214167 0.038952 0.5
318 2 0.221951 0.0296148 0.5
433 2 0.226756 0.0414585 0.5
381 2 0.234803 0.0310871 0.5
518 1 0.245499 0.034659 0.5
220 1 0.249422 0.0404487 0.5
73 2 0.256137 0.0315886 0.5
4979 2 0.268779 0.0320416 0.5
1213 1 0.262173 0.0410882 0.5
577 2 0.279209 0.0395382 0.5
390 1 0.285827 0.0303752 0.5
4926 1 0.289829 0.0356616 0.5
382 1 0.289912 0.0424263 0.5
624 2 0.300399 0.0384822 0.5
168 2 0.310136 0.0299488 0.5
571 1 0.310935 0.0412212 0.5
83 2 0.32315 0.0298359 0.5
1064 1 0.317135 0.0388774 0.5
328 2 0.327903 0.0417789 0.5
28 1 0.333939 0.0322951 0.5
374 2 0.34057 0.0412218 0.5
138 2 0.344673 0.0293814 0.5
4644 1 0.353839 0.0360853 0.5
580 1 0.356383 0.0293917 0.5
131 2 0.368044 0.0313166 0.5
243 1 0.379522 0.0303556 0.5
179 2 0.375956 0.0411258 0.5
143 2 0.389358 0.0356796 0.5
348 1 0.400541 0.0357705 0.5
236 2 0.409812 0.0300584 0.5
445 1 0.406008 0.0404543 0.5
342 1 0.424936 0.0290446 0.5
4591 1 0.420028 0.033455 0.5
100 2 0.435991 0.0288229 0.5
293 2 0.4289 0.039946 0.5
387 1 0.439912 0.0393309 0.5
548 2 0.44859 0.0323548 0.5
93 2 0.456499 0.0426756 0.5
5651 1 0.459735 0.0320229 0.5
498 1 0.465303 0.035779 0.5
396 2 0.476342 0.0352633 0.5
443 1 0.485322 0.0417645 0.5
295 2 0.488599 0.0310013 0.5
290 1 0.492063 0.0415458 0.5
4709 1 0.0045649 0.0501851 0.5
4356 1 0.0113406 0.0485434 0.5
309 1 0.0160899 0.043895 0.5
5496 2 0.0222737 0.0534569 0.5
4956 2 0.0330191 0.0459831 0.5
357 2 0.0460062 0.0462043 0.5
9997 1 0.0568001 0.0491803 0.5
561 2 0.0674713 0.0461142 0.5
162 1 0.0780627 0.0498284 0.5
860 1 0.0739951 0.0551899 0.5
409 1 0.0845257 0.0478109 0.5
410 1 0.0910149 0.0499523 0.5
202 1 0.112182 0.043141 0.5
363 2 0.101584 0.0468529 0.5
268 1 0.108501 0.0558701 0.5
712 1 0.112169 0.0501501 0.5
4914 2 0.122553 0.0466104 0.5
4810 1 0.129922 0.0552614 0.5
207 1 0.136214 0.0518307 0.5
713 1 0.133188 0.0459258 0.5
312 2 0.143698 0.0434665 0.5
507 2 0.147025 0.055549 0.5
122 2 0.156283 0.0451163 0.5
366 2 0.169068 0.0515003 0.5
565 1 0.158683 0.0560278 0.5
261 1 0.177183 0.0434837 0.5
4871 1 0.180129 0.0496283 0.5
219 1 0.186272 0.0524762 0.5
221 2 0.197086 0.0501142 0.5
523 1 0.207443 0.0471463 0.5
4779 1 0.207758 0.0537836 0.5
379 2 0.218552 0.0507941 0.5
323 2 0.23886 0.043465 0.5
970 1 0.230055 0.052477 0.5
373 1 0.236942 0.0540908 0.5
139 1 0.255691 0.0430886 0.5
222 2 0.248638 0.0518362 0.5
180 1 0.268633 0.0431941 0.5
632 2 0.26218 0.0524013 0.5
276 1 0.273001 0.0553879 0.5
519 1 0.272743 0.0485966 0.5
628 2 0.283524 0.0516386 0.5
4722 1 0.294024 0.0477149 0.5
332 2 0.304743 0.0504457 0.5
528 2 0.317818 0.0499605 0.5
135 1 0.328572 0.0528171 0.5
229 1 0.335023 0.0506184 0.5
475 1 0.341444 0.0531665 0.5
436 2 0.351109 0.0473916 0.5
392 2 0.362964 0.0429166 0.5
134 1 0.359972 0.0537814 0.5
193 2 0.370913 0.0534579 0.5
86 1 0.381367 0.051121 0.5
4882 1 0.385661 0.0460154 0.5
788 1 0.387899 0.0523768 0.5
198 2 0.396536 0.0459917 0.5
435 2 0.407041 0.0519386 0.5
447 2 0.41669 0.043969 0.5
789 1 0.425461 0.0509045 0.5
296 2 0.436702 0.0501789 0.5
385 1 0.445447 0.0432109 0.5
347 1 0.447837 0.049645 0.5
598 1 0.446152 0.0562414 0.5
594 2 0.457366 0.0555259 0.5
497 2 0.468704 0.0463726 0.5
492 1 0.4799 0.0458611 0.5
9721 1 0.478146 0.0523908 0.5
345 1 0.497691 0.0452525 0.5
5054 2 0.489158 0.052327 0.5
5195 2 0.0108311 0.0593083 0.5
5650 2 0.00432334 0.069814 0.5
5893 1 0.0153631 0.0692438 0.5
607 1 0.0206345 0.0646585 0.5
4952 1 0.0274987 0.0638137 0.5
4705 2 0.0372306 0.0578265 0.5
452 1 0.0329713 0.0681315 0.5
53 2 0.0507245 0.0583288 0.5
361 2 0.0441728 0.068636 0.5
13 1 0.0562339 0.0687271 0.5
3 2 0.0632736 0.058284 0.5
102 1 0.0634357 0.0691815 0.5
61 1 0.0699595 0.0673878 0.5
602 1 0.0738997 0.0619327 0.5
67 2 0.0846316 0.0589473 0.5
566 2 0.0806103 0.0708538 0.5
4865 2 0.0978638 0.0589722 0.5
673 1 0.0913758 0.0677135 0.5
223 1 0.108465 0.0627588 0.5
217 1 0.112439 0.0683779 0.5
214 2 0.119187 0.0591874 0.5
616 1 0.118723 0.0707663 0.5
115 2 0.129141 0.0671233 0.5
355 1 0.13597 0.0584231 0.5
463 2 0.141716 0.0675849 0.5
71 2 0.154036 0.0661222 0.5
511 2 0.166598 0.0643991 0.5
218 2 0.179046 0.0609961 0.5
1013 1 0.189871 0.0582973 0.5
4715 1 0.1901 0.0649622 0.5
166 1 0.193872 0.0709088 0.5
613 2 0.200742 0.0622825 0.5
4866 1 0.211507 0.0593445 0.5
175 2 0.210773 0.0702848 0.5
226 2 0.222072 0.0627069 0.5
522 1 0.232448 0.0590878 0.5
520 2 0.232258 0.0704389 0.5
4918 2 0.242944 0.0633002 0.5
17 2 0.255983 0.0634845 0.5
4867 1 0.269726 0.061339 0.5
826 1 0.276975 0.0609732 0.5
926 1 0.284054 0.0626714 0.5
617 2 0.294564 0.0587427 0.5
427 1 0.28858 0.0680575 0.5
428 2 0.299401 0.0708992 0.5
581 1 0.311562 0.0591487 0.5
82 1 0.305313 0.0615852 0.5
430 2 0.312438 0.0702518 0.5
676 2 0.32222 0.0618409 0.5
34 1 0.333724 0.0572053 0.5
75 1 0.340037 0.0599232 0.5
831 2 0.332652 0.0680436 0.5
533 2 0.350961 0.0603894 0.5
480 1 0.355209 0.071029 0.5
4834 1 0.362136 0.0602026 0.5
147 1 0.360349 0.0667079 0.5
285 2 0.371471 0.0664044 0.5
489 2 0.383367 0.0621787 0.5
281 2 0.39624 0.0595455 0.5
418 1 0.406827 0.0629961 0.5
5302 1 0.402871 0.0685796 0.5
94 1 0.428174 0.0572325 0.5
136 2 0.417269 0.0587992 0.5
39 2 0.425653 0.0682028 0.5
184 2 0.437501 0.0633585 0.5
597 2 0.449964 0.066712 0.5
240 2 0.469596 0.0591911 0.5
9859 1 0.461053 0.0661069 0.5
5502 2 0.481979 0.0629806 0.5
541 1 0.493204 0.062681 0.5
298 1 0.492047 0.0691063 0.5
5447 1 0.00819519 0.0802718 0.5
4757 1 0.0134176 0.0758717 0.5
554 2 0.0244125 0.0752046 0.5
5500 1 0.0351293 0.0747505 0.5
4863 1 0.0398141 0.0794431 0.5
609 2 0.050432 0.0790386 0.5
658 1 0.0602096 0.0748823 0.5
303 2 0.0705504 0.0784959 0.5
1017 1 0.0811134 0.0819405 0.5
113 1 0.0874222 0.0796879 0.5
509 1 0.0912863 0.074346 0.5
316 1 0.0942837 0.0805206 0.5
467 2 0.101947 0.0719681 0.5
158 2 0.112171 0.07998 0.5
468 2 0.12543 0.0797556 0.5
417 2 0.138302 0.0797446 0.5
809 1 0.148694 0.0760473 0.5
563 1 0.1552 0.0774397 0.5
671 1 0.161124 0.0743972 0.5
760 2 0.16267 0.0856845 0.5
774 2 0.17165 0.0764897 0.5
177 2 0.183285 0.0732867 0.5
1482 1 0.181137 0.0839725 0.5
619 2 0.192669 0.0823862 0.5
19 1 0.200045 0.0735879 0.5
360 1 0.203694 0.0792543 0.5
271 2 0.214464 0.08214 0.5
869 1 0.221551 0.0737005 0.5
725 1 0.225317 0.0793523 0.5
614 2 0.235728 0.0833043 0.5
152 1 0.242572 0.0744737 0.5
477 1 0.249059 0.0724816 0.5
267 1 0.255347 0.074771 0.5
464 2 0.248697 0.083755 0.5
326 2 0.265877 0.0716876 0.5
525 2 0.261606 0.0839941 0.5
70 2 0.278321 0.0720061 0.5
781 1 0.272216 0.0810297 0.5
266 2 0.283015 0.0843123 0.5
588 1 0.28913 0.0750051 0.5
4835 1 0.293471 0.0805129 0.5
176 1 0.30009 0.0822759 0.5
664 1 0.306348 0.0795 0.5
4585 1 0.323244 0.0732271 0.5
575 2 0.317233 0.0821794 0.5
599 1 0.328247 0.0789271 0.5
4978 1 0.33531 0.0785053 0.5
343 1 0.332837 0.0846999 0.5
294 2 0.344268 0.0713941 0.5
182 1 0.35337 0.0776603 0.5
635 1 0.355584 0.0840797 0.5
576 2 0.344494 0.0846053 0.5
438 2 0.364514 0.0771891 0.5
442 1 0.380952 0.0727839 0.5
644 1 0.375591 0.0767997 0.5
395 2 0.384856 0.0831142 0.5
183 2 0.392226 0.072195 0.5
140 2 0.397139 0.0847152 0.5
486 2 0.413691 0.0716467 0.5
336 1 0.403135 0.0754026 0.5
388 2 0.41069 0.0839206 0.5
289 1 0.42183 0.0794379 0.5
42 1 0.428887 0.0788387 0.5
191 1 0.434568 0.0744813 0.5
495 1 0.44134 0.0738577 0.5
797 2 0.43851 0.0847494 0.5
344 2 0.450783 0.07976 0.5
5552 2 0.470784 0.0718218 0.5
4941 1 0.459479 0.0726731 0.5
5656 1 0.461973 0.0789735 0.5
5055 1 0.467684 0.0826195 0.5
389 1 0.474444 0.0823638 0.5
5951 2 0.483114 0.0754802 0.5
5260 2 0.495884 0.0792952 0.5
553 2 0.00423358 0.0906175 0.5
302 2 0.0177964 0.0860474 0.5
5797 2 0.0143387 0.0981079 0.5
5697 1 0.0247381 0.0948099 0.5
5748 2 0.0312705 0.0859846 0.5
5191 2 0.035189 0.0982989 0.5
4559 1 0.0426466 0.0884517 0.5
5146 1 0.0455247 0.0949452 0.5
660 1 0.0495951 0.089745 0.5
659 2 0.0562209 0.0985141 0.5
510 2 0.0604243 0.0863245 0.5
310 1 0.0670855 0.0951808 0.5
205 1 0.0710244 0.0896729 0.5
5450 1 0.0774155 0.0874936 0.5
512 2 0.0778937 0.0985334 0.5
501 2 0.0883718 0.0905067 0.5
661 1 0.0956348 0.0989638 0.5
358 2 0.101572 0.0888989 0.5
5696 1 0.112667 0.0912766 0.5
213 1 0.119137 0.0890049 0.5
163 1 0.125843 0.0909334 0.5
411 1 0.132368 0.0889668 0.5
125 1 0.139167 0.0909229 0.5
662 2 0.13287 0.100053 0.5
817 1 0.143555 0.0964099 0.5
460 2 0.149743 0.0871815 0.5
508 2 0.154671 0.0994948 0.5
1127 1 0.165535 0.0965161 0.5
273 1 0.171303 0.092394 0.5
1010 1 0.17191 0.0989216 0.5
230 1 0.17493 0.0868157 0.5
258 2 0.182597 0.0949747 0.5
365 2 0.197097 0.0953174 0.5
313 1 0.203486 0.086027 0.5
469 2 0.211325 0.0938742 0.5
364 2 0.224733 0.0905749 0.5
378 1 0.235345 0.094507 0.5
66 1 0.241944 0.0926786 0.5
157 1 0.231223 0.0999273 0.5
568 1 0.248453 0.0948807 0.5
823 1 0.255072 0.0929544 0.5
126 1 0.261673 0.095101 0.5
224 2 0.272563 0.0920199 0.5
828 1 0.283364 0.0953944 0.5
567 2 0.294306 0.0920076 0.5
734 2 0.307905 0.0903669 0.5
478 1 0.315548 0.0988565 0.5
386 2 0.324632 0.0920507 0.5
892 1 0.335647 0.0910926 0.5
375 1 0.341069 0.0954969 0.5
618 1 0.334684 0.0978242 0.5
128 2 0.352232 0.0948477 0.5
4917 1 0.361173 0.0878456 0.5
593 1 0.363531 0.0941061 0.5
380 2 0.37243 0.0873999 0.5
945 1 0.381729 0.0934602 0.5
684 1 0.384445 0.099411 0.5
127 1 0.389352 0.0941808 0.5
649 1 0.39739 0.0958364 0.5
592 1 0.40404 0.0932789 0.5
739 2 0.414936 0.0958925 0.5
394 2 0.426464 0.0898669 0.5
434 1 0.436195 0.0956155 0.5
5904 1 0.442982 0.0949449 0.5
700 1 0.448107 0.0905477 0.5
188 2 0.459188 0.0898431 0.5
5756 2 0.471604 0.0931038 0.5
300 1 0.480028 0.0862379 0.5
850 2 0.483703 0.0970701 0.5
291 1 0.486628 0.0858862 0.5
5308 2 0.495579 0.0917607 0.5
5747 2 0.00340312 0.103986 0.5
4254 1 0.013533 0.109093 0.5
5750 2 0.0243648 0.105984 0.5
5498 1 0.0349349 0.109509 0.5
256 2 0.0456458 0.106098 0.5
706 1 0.0562724 0.109687 0.5
5849 1 0.0668419 0.101879 0.5
420 1 0.0627989 0.107463 0.5
54 2 0.0735527 0.11049 0.5
455 1 0.0849748 0.106963 0.5
5950 1 0.0842269 0.113593 0.5
6899 1 0.089071 0.101495 0.5
657 2 0.0958701 0.110343 0.5
557 2 0.106687 0.100756 0.5
569 1 0.107403 0.111727 0.5
761 1 0.113836 0.109599 0.5
314 2 0.11982 0.100224 0.5
858 1 0.1205 0.111339 0.5
710 1 0.126946 0.1093 0.5
6550 1 0.133587 0.111279 0.5
321 2 0.144101 0.107603 0.5
764 1 0.154832 0.110883 0.5
910 2 0.165587 0.107912 0.5
4915 2 0.178558 0.107399 0.5
272 1 0.189428 0.103716 0.5
456 1 0.195681 0.106529 0.5
118 1 0.198821 0.112698 0.5
255 2 0.206811 0.105182 0.5
529 2 0.220483 0.102747 0.5
1028 1 0.226771 0.112099 0.5
929 1 0.231043 0.106842 0.5
1115 2 0.241762 0.103897 0.5
526 2 0.254911 0.104 0.5
227 1 0.248166 0.112929 0.5
383 1 0.265665 0.100637 0.5
472 2 0.265659 0.111645 0.5
578 2 0.276442 0.104276 0.5
1035 2 0.286815 0.112243 0.5
620 1 0.287244 0.100962 0.5
692 1 0.293562 0.103455 0.5
674 2 0.29957 0.113442 0.5
928 2 0.304384 0.101947 0.5
72 1 0.310484 0.111148 0.5
669 1 0.314818 0.105759 0.5
133 2 0.32584 0.104345 0.5
237 1 0.337109 0.104288 0.5
785 1 0.343493 0.102057 0.5
487 1 0.34406 0.110473 0.5
693 1 0.349244 0.105695 0.5
540 2 0.360605 0.104665 0.5
640 1 0.369354 0.111508 0.5
484 2 0.372788 0.100318 0.5
600 2 0.38075 0.109785 0.5
491 2 0.393005 0.10614 0.5
337 2 0.405133 0.104283 0.5
846 1 0.42465 0.101142 0.5
845 2 0.416738 0.108866 0.5
339 1 0.431264 0.100233 0.5
5601 2 0.429438 0.11144 0.5
650 2 0.44088 0.105827 0.5
500 2 0.452493 0.10086 0.5
544 1 0.450302 0.111887 0.5
938 1 0.457036 0.11112 0.5
5764 1 0.463532 0.100247 0.5
743 1 0.462186 0.106739 0.5
1000 2 0.473555 0.105862 0.5
5412 1 0.484434 0.10862 0.5
5557 2 0.494566 0.104019 0.5
6210 1 0.48943 0.113648 0.5
965 2 0.00674321 0.117789 0.5
853 1 0.0129916 0.127059 0.5
5694 2 0.0199766 0.118259 0.5
612 1 0.0308662 0.115047 0.5
803 2 0.0301161 0.126192 0.5
956 2 0.0415883 0.118439 0.5
406 1 0.0522584 0.115221 0.5
6196 2 0.0522983 0.126484 0.5
502 2 0.0629312 0.118627 0.5
711 1 0.0697054 0.127314 0.5
457 1 0.0736772 0.121727 0.5
552 1 0.08005 0.119228 0.5
808 2 0.0904883 0.12242 0.5
709 2 0.102643 0.121458 0.5
412 2 0.114786 0.120755 0.5
610 2 0.127317 0.120434 0.5
810 2 0.140426 0.120409 0.5
4968 1 0.151023 0.116608 0.5
165 1 0.151241 0.123551 0.5
517 2 0.161842 0.119899 0.5
911 1 0.172328 0.123713 0.5
370 1 0.17299 0.116961 0.5
419 1 0.178891 0.121391 0.5
372 1 0.185469 0.125308 0.5
1014 2 0.188101 0.114825 0.5
424 2 0.196795 0.123782 0.5
208 1 0.204742 0.116014 0.5
4617 1 0.207804 0.122008 0.5
868 2 0.215793 0.114361 0.5
1062 1 0.225989 0.118843 0.5
666 2 0.21785 0.126816 0.5
872 1 0.228879 0.12492 0.5
862 2 0.237155 0.116671 0.5
719 1 0.254923 0.114945 0.5
668 2 0.248625 0.123875 0.5
415 1 0.259027 0.120451 0.5
527 2 0.26935 0.124381 0.5
516 1 0.276085 0.115422 0.5
720 1 0.27991 0.121008 0.5
863 1 0.286231 0.123406 0.5
922 1 0.292801 0.121979 0.5
421 1 0.299174 0.124727 0.5
830 1 0.309746 0.11799 0.5
631 1 0.30572 0.123461 0.5
283 2 0.320531 0.115522 0.5
333 1 0.327109 0.124205 0.5
542 2 0.316079 0.127366 0.5
732 2 0.333382 0.114801 0.5
384 2 0.337664 0.127528 0.5
1038 1 0.343891 0.117838 0.5
238 2 0.354613 0.115346 0.5
189 2 0.350238 0.127132 0.5
234 1 0.365753 0.117866 0.5
1146 1 0.361385 0.123885 0.5
793 2 0.371435 0.128312 0.5
287 1 0.37276 0.11741 0.5
587 1 0.379104 0.120595 0.5
641 1 0.382334 0.126697 0.5
697 2 0.390028 0.118524 0.5
440 2 0.399489 0.126787 0.5
682 1 0.400606 0.114905 0.5
683 1 0.407465 0.115176 0.5
448 1 0.40913 0.121635 0.5
591 2 0.420005 0.120887 0.5
5707 1 0.430942 0.122495 0.5
647 2 0.441379 0.118441 0.5
596 1 0.4352 0.127714 0.5
590 2 0.455093 0.122064 0.5
696 2 0.46681 0.11668 0.5
549 1 0.46476 0.127603 0.5
5710 1 0.471681 0.126619 0.5
5356 2 0.479584 0.118787 0.5
5403 1 0.496517 0.114828 0.5
5554 2 0.491524 0.124547 0.5
6348 1 0.0063342 0.128894 0.5
902 1 0.00199272 0.134182 0.5
5649 2 0.0123913 0.13824 0.5
5046 1 0.0194205 0.129506 0.5
814 1 0.0233275 0.135163 0.5
4856 1 0.0406426 0.129382 0.5
505 2 0.0339241 0.139129 0.5
5799 2 0.0469325 0.138106 0.5
1203 1 0.0632115 0.130039 0.5
908 2 0.0589624 0.140604 0.5
656 2 0.0712437 0.138149 0.5
816 2 0.0807372 0.130361 0.5
253 1 0.0817747 0.141596 0.5
1156 1 0.0879307 0.139283 0.5
1052 1 0.0912806 0.133465 0.5
1001 1 0.0974669 0.130975 0.5
807 2 0.0985493 0.141821 0.5
855 2 0.108272 0.133245 0.5
766 2 0.120603 0.131986 0.5
1002 1 0.115706 0.142443 0.5
762 2 0.126767 0.142826 0.5
462 2 0.133217 0.131583 0.5
5900 1 0.13832 0.141557 0.5
215 1 0.155556 0.129053 0.5
459 2 0.145527 0.133192 0.5
857 2 0.155822 0.140753 0.5
1158 1 0.167999 0.12914 0.5
912 1 0.161802 0.131495 0.5
623 2 0.168125 0.140925 0.5
913 2 0.177997 0.133196 0.5
721 1 0.187887 0.138037 0.5
564 1 0.18883 0.131309 0.5
663 2 0.198805 0.136359 0.5
813 1 0.206815 0.128649 0.5
726 1 0.20987 0.134632 0.5
305 1 0.20872 0.141272 0.5
715 2 0.219788 0.139619 0.5
471 1 0.227638 0.131797 0.5
622 2 0.238409 0.130292 0.5
820 1 0.230696 0.138007 0.5
969 1 0.248355 0.134893 0.5
376 1 0.25185 0.140598 0.5
919 2 0.258839 0.131696 0.5
687 1 0.269072 0.135652 0.5
426 1 0.273083 0.141173 0.5
425 2 0.27948 0.132178 0.5
966 1 0.285092 0.141527 0.5
476 2 0.292068 0.132983 0.5
880 2 0.305248 0.135071 0.5
677 1 0.316117 0.138501 0.5
579 1 0.322661 0.136326 0.5
1026 1 0.326812 0.130917 0.5
284 2 0.333342 0.139868 0.5
794 2 0.346076 0.139677 0.5
639 1 0.356622 0.136262 0.5
1047 1 0.360626 0.130725 0.5
636 2 0.367113 0.139769 0.5
744 2 0.38061 0.138056 0.5
728 1 0.388428 0.129587 0.5
875 1 0.391987 0.135254 0.5
439 1 0.391227 0.141905 0.5
490 2 0.402387 0.139443 0.5
543 2 0.412631 0.132218 0.5
535 2 0.425257 0.132311 0.5
784 1 0.419161 0.141554 0.5
1050 2 0.436146 0.138929 0.5
795 2 0.445793 0.130386 0.5
991 1 0.447163 0.141233 0.5
948 2 0.457159 0.136081 0.5
748 2 0.469723 0.13741 0.5
699 2 0.48155 0.132311 0.5
5712 2 0.494623 0.136573 0.5
903 1 0.00682045 0.15436 0.5
753 1 0.0112827 0.149194 0.5
906 2 0.000848073 0.145002 0.5
6199 1 0.000296834 0.156135 0.5
654 2 0.0222688 0.14632 0.5
359 1 0.0278609 0.155837 0.5
1652 1 0.0327801 0.150514 0.5
754 2 0.0443393 0.150055 0.5
403 1 0.0562619 0.151734 0.5
954 2 0.0676332 0.149894 0.5
1101 1 0.0782464 0.147164 0.5
707 2 0.0890181 0.150772 0.5
701 1 0.109247 0.144278 0.5
806 2 0.102706 0.153243 0.5
914 1 0.113503 0.1495 0.5
953 2 0.122873 0.155229 0.5
955 2 0.135005 0.15196 0.5
763 2 0.146992 0.149336 0.5
513 1 0.157729 0.152122 0.5
1460 1 0.16439 0.15146 0.5
172 1 0.171116 0.152403 0.5
665 2 0.179775 0.145695 0.5
770 1 0.190725 0.144149 0.5
570 1 0.189489 0.15086 0.5
904 1 0.192225 0.156939 0.5
918 2 0.200603 0.148968 0.5
670 1 0.211774 0.147239 0.5
1066 1 0.210649 0.153795 0.5
870 2 0.221881 0.152192 0.5
717 2 0.240916 0.143015 0.5
821 1 0.22992 0.144692 0.5
723 1 0.233153 0.150727 0.5
423 2 0.243742 0.155905 0.5
790 1 0.251214 0.147372 0.5
724 1 0.254985 0.152979 0.5
1018 2 0.262195 0.144382 0.5
916 2 0.265853 0.156607 0.5
627 1 0.272781 0.147862 0.5
1074 1 0.279071 0.144906 0.5
771 1 0.285358 0.148133 0.5
626 2 0.279005 0.156861 0.5
485 2 0.295851 0.144704 0.5
729 2 0.292247 0.156974 0.5
638 1 0.31234 0.144154 0.5
730 1 0.302867 0.153348 0.5
481 1 0.306404 0.147272 0.5
637 2 0.313667 0.155727 0.5
681 2 0.323022 0.147395 0.5
334 1 0.333379 0.151161 0.5
493 1 0.339804 0.149001 0.5
595 1 0.346265 0.151078 0.5
482 2 0.356798 0.147484 0.5
330 1 0.350319 0.156637 0.5
5401 1 0.367545 0.150738 0.5
5657 1 0.374037 0.148226 0.5
688 2 0.384679 0.150897 0.5
996 2 0.397682 0.150851 0.5
746 1 0.412742 0.143697 0.5
629 1 0.408822 0.149297 0.5
586 1 0.409577 0.156238 0.5
900 1 0.425797 0.143363 0.5
998 2 0.419895 0.152844 0.5
5801 1 0.430255 0.148497 0.5
5959 1 0.430964 0.155292 0.5
5901 2 0.441228 0.150576 0.5
841 1 0.451757 0.146157 0.5
1096 1 0.452388 0.15298 0.5
899 2 0.462671 0.14826 0.5
999 1 0.479417 0.143141 0.5
299 1 0.474136 0.147221 0.5
1249 2 0.483335 0.15369 0.5
5905 1 0.486139 0.143138 0.5
5708 2 0.496458 0.149533 0.5
702 2 0.00618122 0.16562 0.5
1201 2 0.0169687 0.158654 0.5
1507 1 0.022729 0.168202 0.5
1005 1 0.0162884 0.17001 0.5
257 1 0.0270408 0.162903 0.5
5743 2 0.0376824 0.160621 0.5
705 1 0.0432638 0.169883 0.5
555 2 0.0501954 0.16122 0.5
606 1 0.0605558 0.158046 0.5
653 1 0.0669633 0.160826 0.5
757 2 0.0600132 0.169312 0.5
805 1 0.07069 0.166514 0.5
1356 2 0.0778789 0.158106 0.5
909 2 0.0808642 0.170857 0.5
5543 1 0.0881195 0.162215 0.5
1454 1 0.0947282 0.160881 0.5
1051 1 0.100921 0.164041 0.5
1106 2 0.111984 0.161474 0.5
758 1 0.104597 0.169715 0.5
759 1 0.121782 0.16656 0.5
811 2 0.132452 0.163835 0.5
1256 2 0.142802 0.170844 0.5
924 1 0.142926 0.159737 0.5
1113 2 0.153692 0.162624 0.5
1057 2 0.166702 0.162686 0.5
714 2 0.180888 0.158485 0.5
967 2 0.177291 0.171052 0.5
708 2 0.190739 0.1679 0.5
765 2 0.202411 0.161305 0.5
768 1 0.212525 0.166204 0.5
615 1 0.213732 0.159693 0.5
1271 1 0.207778 0.170971 0.5
1069 2 0.223752 0.164699 0.5
470 1 0.232109 0.157274 0.5
1022 2 0.236592 0.167224 0.5
972 1 0.254936 0.159667 0.5
1023 2 0.248875 0.168789 0.5
923 2 0.261816 0.168669 0.5
1073 1 0.27249 0.165826 0.5
574 1 0.279002 0.167915 0.5
815 1 0.285648 0.165918 0.5
691 1 0.292287 0.16815 0.5
727 2 0.303108 0.164689 0.5
642 2 0.315909 0.168176 0.5
431 2 0.326522 0.160071 0.5
1386 1 0.326845 0.17122 0.5
589 2 0.339717 0.160328 0.5
280 1 0.33329 0.169441 0.5
178 1 0.350451 0.163507 0.5
873 1 0.354692 0.16891 0.5
534 2 0.361087 0.159906 0.5
745 1 0.367537 0.168919 0.5
978 2 0.374096 0.159551 0.5
1099 1 0.384868 0.162115 0.5
896 2 0.378807 0.171274 0.5
780 1 0.391169 0.159946 0.5
1290 1 0.397555 0.161892 0.5
839 2 0.391581 0.171264 0.5
371 1 0.403974 0.159679 0.5
694 2 0.404449 0.170385 0.5
942 1 0.413449 0.162617 0.5
997 2 0.425227 0.164908 0.5
546 1 0.435545 0.160414 0.5
5511 1 0.442301 0.161575 0.5
1197 1 0.44869 0.15877 0.5
747 2 0.449656 0.169767 0.5
5856 2 0.471371 0.157519 0.5
5505 2 0.459539 0.161669 0.5
1195 1 0.4692 0.167959 0.5
5652 2 0.480388 0.16652 0.5
5613 2 0.492482 0.162005 0.5
1311 1 0.0113461 0.181984 0.5
5444 1 0.0119204 0.175198 0.5
6250 2 0.00108343 0.177576 0.5
6149 2 0.0221305 0.179619 0.5
5744 2 0.0326794 0.17272 0.5
6150 1 0.0321506 0.184116 0.5
1053 2 0.0423485 0.180835 0.5
1559 1 0.049424 0.172238 0.5
804 1 0.0529872 0.177832 0.5
5947 1 0.0591174 0.180434 0.5
957 2 0.0697587 0.177626 0.5
5 1 0.079708 0.182187 0.5
368 1 0.0862059 0.180661 0.5
1402 2 0.0934667 0.172171 0.5
854 1 0.092321 0.183376 0.5
951 2 0.102998 0.180555 0.5
964 2 0.114546 0.175075 0.5
1215 1 0.125379 0.172415 0.5
959 2 0.125082 0.183586 0.5
1121 1 0.131847 0.174717 0.5
1207 2 0.13891 0.183049 0.5
466 1 0.153526 0.174017 0.5
1306 1 0.149513 0.179595 0.5
864 1 0.160028 0.171928 0.5
824 1 0.166477 0.174063 0.5
907 2 0.159859 0.183434 0.5
1211 1 0.1702 0.179805 0.5
1109 1 0.176226 0.18261 0.5
1320 2 0.186644 0.179982 0.5
1009 1 0.197059 0.177419 0.5
1012 1 0.201178 0.172244 0.5
915 2 0.207034 0.181976 0.5
718 2 0.217687 0.17583 0.5
1167 1 0.22706 0.181307 0.5
1024 1 0.228614 0.174732 0.5
1025 2 0.238303 0.180129 0.5
1117 1 0.249304 0.179862 0.5
573 1 0.255512 0.177688 0.5
1174 1 0.256457 0.184495 0.5
322 1 0.261757 0.179851 0.5
585 2 0.272513 0.177056 0.5
672 2 0.285354 0.176985 0.5
362 1 0.296329 0.173764 0.5
879 1 0.295901 0.180657 0.5
679 2 0.30689 0.17791 0.5
537 2 0.320366 0.179984 0.5
791 2 0.333306 0.180958 0.5
432 2 0.343913 0.172679 0.5
742 1 0.35459 0.1756 0.5
736 2 0.346357 0.18555 0.5
1085 1 0.361024 0.172255 0.5
645 2 0.369975 0.17968 0.5
987 2 0.359179 0.185336 0.5
538 1 0.379759 0.185023 0.5
1142 1 0.385043 0.180321 0.5
1045 2 0.396469 0.183174 0.5
989 1 0.407369 0.180635 0.5
1185 1 0.412868 0.184398 0.5
937 2 0.416497 0.17395 0.5
181 1 0.427358 0.176504 0.5
798 2 0.437183 0.171589 0.5
5757 2 0.435618 0.184937 0.5
5851 1 0.445235 0.179788 0.5
897 1 0.451927 0.180941 0.5
5802 2 0.46089 0.174798 0.5
5804 2 0.468616 0.184475 0.5
949 1 0.457299 0.185495 0.5
5704 1 0.472072 0.173988 0.5
5515 1 0.4777 0.177683 0.5
1200 1 0.484437 0.176826 0.5
5766 1 0.489895 0.17257 0.5
5902 2 0.49368 0.182754 0.5
5845 1 0.00702493 0.187137 0.5
1304 1 0.0065241 0.193878 0.5
6650 1 0.0100238 0.199781 0.5
5943 2 0.017423 0.191517 0.5
2055 1 0.0278188 0.196138 0.5
1458 1 0.0282414 0.189443 0.5
5850 2 0.0389108 0.193611 0.5
6147 2 0.051601 0.188691 0.5
5145 1 0.0490631 0.199128 0.5
1602 1 0.0624495 0.186221 0.5
1253 2 0.0606009 0.197201 0.5
1105 2 0.0724383 0.190639 0.5
1007 2 0.0851298 0.191997 0.5
859 1 0.0958982 0.18911 0.5
1556 1 0.102176 0.191645 0.5
1257 1 0.105723 0.197404 0.5
1206 2 0.112816 0.18838 0.5
1360 1 0.112002 0.199669 0.5
1155 2 0.122533 0.196232 0.5
1112 1 0.132444 0.192027 0.5
1618 1 0.138713 0.19409 0.5
1367 1 0.133899 0.198991 0.5
963 2 0.149242 0.190758 0.5
1417 1 0.159499 0.194931 0.5
1059 2 0.169857 0.191534 0.5
1168 2 0.182671 0.192052 0.5
667 2 0.196444 0.188651 0.5
958 1 0.207421 0.192875 0.5
974 1 0.20305 0.198009 0.5
818 2 0.218104 0.188662 0.5
917 2 0.226565 0.197888 0.5
716 1 0.229576 0.187403 0.5
968 1 0.235323 0.190931 0.5
1016 1 0.237802 0.197211 0.5
1165 2 0.246391 0.190296 0.5
773 2 0.257453 0.195717 0.5
738 2 0.267652 0.188937 0.5
722 2 0.280399 0.188908 0.5
621 1 0.273565 0.198055 0.5
536 1 0.29145 0.186076 0.5
1424 1 0.290836 0.192839 0.5
1130 1 0.294319 0.198678 0.5
584 2 0.301735 0.190165 0.5
1227 1 0.312618 0.18773 0.5
777 2 0.310923 0.198649 0.5
633 1 0.318901 0.190897 0.5
1319 1 0.325819 0.18986 0.5
685 2 0.336051 0.194506 0.5
583 1 0.353434 0.194714 0.5
1063 1 0.34705 0.196883 0.5
1224 1 0.360164 0.196227 0.5
1493 2 0.370852 0.192307 0.5
630 1 0.382082 0.191915 0.5
827 1 0.386314 0.186858 0.5
532 1 0.389348 0.192904 0.5
884 2 0.400535 0.195957 0.5
249 1 0.406794 0.187206 0.5
1088 2 0.413983 0.195488 0.5
1150 2 0.423374 0.186931 0.5
1141 1 0.424767 0.198168 0.5
939 1 0.430857 0.195162 0.5
973 1 0.437531 0.196158 0.5
5903 2 0.447382 0.190904 0.5
1046 2 0.459521 0.196662 0.5
6001 2 0.472372 0.196081 0.5
847 2 0.482059 0.187923 0.5
6105 1 0.491756 0.193722 0.5
5701 1 0.498423 0.192692 0.5
1506 1 0.00936294 0.206523 0.5
1204 2 0.0203009 0.204314 0.5
2071 1 0.0258123 0.214051 0.5
5946 2 0.0333037 0.205778 0.5
1609 1 0.0435241 0.210431 0.5
703 1 0.0442162 0.203715 0.5
1157 2 0.0546512 0.208568 0.5
851 1 0.066085 0.206656 0.5
1555 1 0.0647289 0.213235 0.5
1359 1 0.0708898 0.201661 0.5
5999 1 0.0777514 0.200443 0.5
1210 2 0.076155 0.211439 0.5
1159 1 0.0840465 0.203254 0.5
1260 2 0.0949874 0.200169 0.5
1305 2 0.0911494 0.211934 0.5
867 2 0.105282 0.208869 0.5
755 1 0.115959 0.20512 0.5
1455 1 0.116439 0.211781 0.5
866 2 0.126918 0.207804 0.5
1357 2 0.13823 0.213223 0.5
1015 1 0.155414 0.200272 0.5
1255 2 0.144874 0.202973 0.5
1107 2 0.15478 0.211633 0.5
1353 2 0.165443 0.204781 0.5
1163 1 0.175731 0.20095 0.5
925 1 0.181892 0.203438 0.5
1309 2 0.175475 0.212438 0.5
1061 2 0.192296 0.20039 0.5
1116 2 0.188329 0.212613 0.5
1060 2 0.201172 0.20916 0.5
960 2 0.213472 0.202217 0.5
767 1 0.211219 0.213576 0.5
1071 1 0.223105 0.208053 0.5
1119 1 0.217934 0.212344 0.5
1373 2 0.234831 0.207754 0.5
1322 2 0.247026 0.203615 0.5
887 1 0.267452 0.200882 0.5
822 2 0.258937 0.20802 0.5
524 1 0.273152 0.204911 0.5
1118 2 0.283824 0.201533 0.5
740 2 0.280963 0.21394 0.5